% Model:              balistic setup solid prut mu3 v2.mph
% Version:            COMSOL 5.3.1.275
% Date:               Sep 13 2018, 15:32
% Table:              Table 12 - Surface Integration 1 (-mf.Bz/((pi*Dobr^2)/4))
% alfa                   Ibp=5, -mf.Bz/((pi*Dobr^2)/4) (T)Ibp=10, -mf.Bz/((pi*Dobr^2)/4) (T)Ibp=20, -mf.Bz/((pi*Dobr^2)/4) (T)Ibp=30, -mf.Bz/((pi*Dobr^2)/4) (T)Ibp=40, -mf.Bz/((pi*Dobr^2)/4) (T)Ibp=50, -mf.Bz/((pi*Dobr^2)/4) (T)Ibp=60, -mf.Bz/((pi*Dobr^2)/4) (T)
1                        0.025174943266103797     0.05059155504044111      0.1014799604673653       0.1524268238933127       0.20342047590536533      0.2544289885599361       0.3054406530080252
3                        0.075450822842673        0.1521071673894912       0.3062066769980753       0.46032459191440905      0.6141734142560502       0.7677164765214718       0.9209480328862024
8                        0.26347015414662095      0.534143436047365        1.0651841547954857       1.5292140587410052       1.8262630573132728       1.9853582507584226       2.0364882436024643
11                       0.4085673560226261       0.8223756823294247       1.529911858720261        1.8617633203088053       2.0017133320468044       2.0398060621993275       2.069884581913488
43                       1.489138192440683        1.7659081217823849       1.936664596466912        2.006454203587737        2.0376121983536613       2.065317734442553        2.091155441142232
